----- GAMESS execution script 'rungms' -----
This job is running on host qcqip2
GAMESS temporary binary files will be written to /home/sugisaki/scratch
GAMESS supplementary output files will be written to /home/sugisaki/scratch
Copying input file ./4H_chain_R20_BS2-UHF_STO-3G_SCF.inp to your run's scratch directory...
cp ./4H_chain_R20_BS2-UHF_STO-3G_SCF.inp /home/sugisaki/scratch/4H_chain_R20_BS2-UHF_STO-3G_SCF.F05
unset echo
/home/sugisaki/WORK/gamess_new/gamess/ddikick.x /home/sugisaki/WORK/gamess_new/gamess/gamess.00.x 4H_chain_R20_BS2-UHF_STO-3G_SCF -ddi 1 1 qcqip2 -scr /home/sugisaki/scratch

 Distributed Data Interface kickoff program.
 Initiating 1 compute processes on 1 nodes to run the following command:
 /home/sugisaki/WORK/gamess_new/gamess/gamess.00.x 4H_chain_R20_BS2-UHF_STO-3G_SCF 

          *******************************************************
          *                                                     *
          *          GAMESS VERSION = 30 SEP 2020 (R2)          *
          *                                                     *
          *              doi.org/10.1063/5.0005188              *
          *                                                     *
          **************** 64 BIT LINUX VERSION *****************

  GAMESS HAS BEEN MADE POSSIBLE WITH IMPORTANT CONTRIBUTIONS FROM
  THE FOLLOWING INDIVIDUALS (IN ALPHABETICAL ORDER):

     IVANA ADAMOVIC, CHRISTINE AIKENS, TOMOKO AKAMA,
     YURI ALEXEEV, YURIKO AOKI, POOJA ARORA, TOSHIO ASADA,
     ANDREY ASADCHEV, KIM K. BALDRIDGE, PRADIPTA BANDYOPADHYAY,
     MARIA BARYSZ, ROB BELL, JONATHAN BENTZ, COLLEEN BERTONI,
     JERRY A. BOATZ, BRETT BODE, KURT BRORSEN, KURT R. BRORSEN,
     LAIMUTIS BYTAUTAS, CALEB CARLIN, LAURA CARRINGTON,
     GALINA CHABAN, BENOIT CHAMPAGNE, WEI CHEN, MAHITO CHIBA,
     DAN CHIPMAN, CHEOL HO CHOI, TANNER CULPITT,
     DIPAYAN DATTA, PAUL DAY, ALBERT DEFUSCO,
     NUWAN DESILVA, J. EMILIANO DEUSTUA,
     TIM DUDLEY, MICHEL DUPUIS, STEVEN T. ELBERT,
     DMITRI FEDOROV, ALEX FINDLATER, GRAHAM FLETCHER,
     MARK FREITAG, CHRISTIAN FRIEDL, DAVID GARMER,
     IGOR S. GERASIMOV, KURT GLAESEMANN, MARK S. GORDON,
     JEFFREY GOUR, FENG LONG GU, EMILIE B. GUIDEZ,
     ANASTASIA GUNINA, SHARON HAMMES-SCHIFFER, MASATAKE HARUTA,
     KIMIHIKO HIRAO, YASUHIRO IKABATA, TZVETELIN IORDANOV,
     STEPHAN IRLE, KAZUYA ISHIMURA, JOE IVANIC, FRANK JENSEN,
     JAN H. JENSEN, VISVALDAS KAIRYS, MUNEAKI KAMIYA,
     MICHIO KATOUDA, NAOAKI KAWAKAMI, DAN KEMP, BERNARD KIRTMAN,
     KAZUO KITAURA, MARIUSZ KLOBUKOWSKI, MASATO KOBAYASHI,
     PRAKASHAN KORAMBATH, JACEK KORCHOWIEC, SHIRO KOSEKI,
     KAROL KOWALSKI, JIMMY KROMANN, STANISLAW KUCHARSKI,
     HENRY KURTZ, SAROM SOK LEANG, HUI LI, SHUHUA LI, WEI LI,
     JESSE LUTZ, ALEKSANDR O. LYKHIN, MARCIN MAKOWSKI,
     JOANI MATO, NIKITA MATSUNAGA, BENEDETTA MENNUCCI,
     GRANT MERRILL, NORIYUKI MINEZAWA, VLADIMIR MIRONOV,
     EISAKU MIYOSHI, JOHN A. MONTGOMERY JR., HIROTOSHI MORI,
     JONATHAN MULLIN, MONIKA MUSIAL, SHIGERU NAGASE,
     TAKESHI NAGATA, HIROMI NAKAI, TAKAHITO NAKAJIMA,
     YUYA NAKAJIMA, HARUYUKI NAKANO, HIROYA NAKATA, SEAN NEDD,
     HEATHER NETZLOFF, KIET A. NGUYEN, YOSHIO NISHIMOTO,
     BOSILJKA NJEGIC, RYAN OLSON, MIKE PAK, ROBERTO PEVERATI,
     BUU PHAM, PIOTR PIECUCH, ANNA POMOGAEVA, DAVID POOLE,
     SPENCER PRUITT, OLIVIER QUINET, LUKE ROSKOP,
     KLAUS RUEDENBERG, ANDREW SAND, TOSAPORN SATTASATHUCHANA,
     NOZOMI SAWADA, MICHAEL W. SCHMIDT, PATRICK E. SCHNEIDER,
     JUNJI SEINO, PRACHI SHARMA, JUN SHEN, JIM SHOEMAKER,
     YINAN SHU, DEJUN SI, JONATHAN SKONE, LYUDMILA SLIPCHENKO,
     TONY SMITH, JIE SONG, MARK SPACKMAN, CASPER STEINMANN,
     WALT STEVENS, PEIFENG SU, SHUJUN SU, CHET SWALINA,
     TETSUYA TAKETSUGU, ZHEN TAO, NANDUN THELLAMUREGE
     SEIKEN TOKURA, JACOPO TOMASI, TSUGUKI TOUMA, TAKAO TSUNEDA,
     HIROAKI UMEDA, JORGE LUIS GALVEZ VALLEJO, YALI WANG,
     SIMON WEBB, AARON WEST, THERESA L. WINDUS, MARTA WLOCH,
     PENG XU, KIYOSHI YAGI, SUSUMU YANAGISAWA, YANG YANG,
     SOOHAENG YOO, TAKESHI YOSHIKAWA, FEDERICO ZAHARIEV,
     TOBY ZENG

  WHO ARE SUPPORTED BY THEIR INSTITUTION/UNIVERSITY/COMPANY/GROUP
  (IN ALPHABETICAL ORDER):

     EP ANALYTICS, FACULTES UNIVERSITAIRES NOTRE-DAME DE LA PAIX,
     INSTITUTE FOR MOLECULAR SCIENCE, IOWA STATE UNIVERSITY,
     JACKSON STATE UNIVERSITY, JOHANNES KEPLER UNIVERSITY LINZ,
     KYUSHU UNIVERSITY, MICHIGAN STATE UNIVERSITY,
     MIE UNIVERSITY, MOSCOW STATE UNIVERSITY,
     N. COPERNICUS UNIVERSITY, NAGOYA UNIVERSITY,
     NANJING UNIVERSITY, NAT. INST. OF ADVANCED INDUSTRIAL
     SCIENCE AND TECHNOLOGY, NATIONAL INST. OF STANDARDS AND
     TECHNOLOGY, NESMEYANOV INSTITUTE OF ORGANOELEMENT COMPOUNDS
     OF RUSSIAN ACADEMY OF SCIENCES, OSAKA PREFECTURE UNIVERSITY,
     PENNSYLVANIA STATE UNIVERSITY, TOKYO INSTITUTE OF TECHNOLOGY,
     UNIVERSITY OF AARHUS, UNIVERSITY OF ALBERTA,
     UNIVERSITY OF CALIFORNIA AT SANTA BARBARA,
     UNIVERSITY OF COPENHAGEN, UNIVERSITY OF IOWA,
     UNIVERSITY OF MEMPHIS, UNIVERSITY OF MINNESOTA,
     UNIVERSITY OF NEBRASKA, UNIVERSITY OF NEW ENGLAND,
     UNIVERSITY OF NOTRE DAME, UNIVERSITY OF PISA,
     UNIVERSITY OF SILESIA, UNIVERSITY OF TOKYO,
     UNIVERSITY OF ZURICH, WASEDA UNIVERSITY, YALE UNIVERSITY

  GAMESS SOFTWARE MANAGEMENT TEAM FOR THIS RELEASE:
     MARK S. GORDON (TEAM LEAD),
     BRETT BODE (SENIOR ADVISOR),
     GIUSEPPE BARCA,
     COLLEEN BERTONI,
     KRISTOPHER KEIPERT (ADVISOR),
     SAROM S. LEANG (DEVELOPMENT LEAD),
     BUU PHAM,
     JORGE LUIS GALVEZ VALLEJO (WEBSITE ADMINISTRATOR),
     PENG XU

 EXECUTION OF GAMESS BEGUN 15:28:12 31-MAR-2025    

            ECHO OF THE FIRST FEW INPUT CARDS -
 INPUT CARD>!                                                                               
 INPUT CARD>!   4H chain, R(H-H) = 2.0 Angstrom                                             
 INPUT CARD>!                                                                               
 INPUT CARD>!    RHF/STO-3G                                                                 
 INPUT CARD>!                                                                               
 INPUT CARD> $CONTRL SCFTYP=UHF MPLEVL=0 MULT=1 NOSYM=1 $END                                
 INPUT CARD> $BASIS  GBASIS=STO NGAUSS=3 $END                                               
 INPUT CARD> $GUESS  GUESS=MOREAD NORB=4 $END                                               
 INPUT CARD> $SYSTEM TIMLIM=86400 MWORDS=100 $END                                           
 INPUT CARD> $SCF    UHFNOS=.True. $END                                                     
 INPUT CARD> $DATA                                                                          
 INPUT CARD>Geom=4H_chain Bas=STO-3G                                                        
 INPUT CARD>DNH   2                                                                         
 INPUT CARD>                                                                                
 INPUT CARD>H      1.0     0.000000    0.000000    3.000000                                 
 INPUT CARD>H      1.0     0.000000    0.000000    1.000000                                 
 INPUT CARD> $END                                                                           
 INPUT CARD>STARTING ORBITALS FROM GUESS=MOREAD                                             
 INPUT CARD> $VEC                                                                           
 INPUT CARD> 1  1 9.99917693E-01 1.28487687E-03 3.70057093E-04-1.08245735E-02               
 INPUT CARD> 2  1-1.20336697E-01 1.62147070E-02 1.01267036E+00-6.12434573E-02               
 INPUT CARD> 3  1 1.28487686E-03 9.99917693E-01-1.08245735E-02 3.70057095E-04               
 INPUT CARD> 4  1 1.62147070E-02-1.20336697E-01-6.12434573E-02 1.01267036E+00               
 INPUT CARD> 1  1 1.28487686E-03 9.99917693E-01-1.08245735E-02 3.70057095E-04               
 INPUT CARD> 2  1 1.62147070E-02-1.20336697E-01-6.12434573E-02 1.01267036E+00               
 INPUT CARD> 3  1 9.99917693E-01 1.28487687E-03 3.70057093E-04-1.08245735E-02               
 INPUT CARD> 4  1-1.20336697E-01 1.62147070E-02 1.01267036E+00-6.12434573E-02               
 INPUT CARD> $END                                                                           
  100000000 WORDS OF MEMORY AVAILABLE

     BASIS OPTIONS
     -------------
     GBASIS=STO          IGAUSS=       3      POLAR=NONE    
     NDFUNC=       0     NFFUNC=       0     DIFFSP=       F
     NPFUNC=       0      DIFFS=       F     BASNAM=        


     RUN TITLE
     ---------
 Geom=4H_chain Bas=STO-3G                                                        

 THE POINT GROUP OF THE MOLECULE IS DNH     
 THE ORDER OF THE PRINCIPAL AXIS IS     2

 ATOM      ATOMIC                      COORDINATES (BOHR)
           CHARGE         X                   Y                   Z
 H           1.0     0.0000000000        0.0000000000       -5.6691779632
 H           1.0     0.0000000000        0.0000000000        5.6691779632
 H           1.0     0.0000000000        0.0000000000       -1.8897259877
 H           1.0     0.0000000000        0.0000000000        1.8897259877

          INTERNUCLEAR DISTANCES (ANGS.)
          ------------------------------

                1 H          2 H          3 H          4 H     

   1 H       0.0000000    6.0000000    2.0000000 *  4.0000000  
   2 H       6.0000000    0.0000000    4.0000000    2.0000000 *
   3 H       2.0000000 *  4.0000000    0.0000000    2.0000000 *
   4 H       4.0000000    2.0000000 *  2.0000000 *  0.0000000  

  * ... LESS THAN  3.000


     ATOMIC BASIS SET
     ----------------
 THE CONTRACTED PRIMITIVE FUNCTIONS HAVE BEEN UNNORMALIZED
 THE CONTRACTED BASIS FUNCTIONS ARE NOW NORMALIZED TO UNITY

  SHELL TYPE  PRIMITIVE        EXPONENT          CONTRACTION COEFFICIENT(S)

 H         

      2   S       1             3.4252509    0.154328967295
      2   S       2             0.6239137    0.535328142282
      2   S       3             0.1688554    0.444634542185

 H         

      4   S       4             3.4252509    0.154328967295
      4   S       5             0.6239137    0.535328142282
      4   S       6             0.1688554    0.444634542185

 TOTAL NUMBER OF BASIS SET SHELLS             =    4
 NUMBER OF CARTESIAN GAUSSIAN BASIS FUNCTIONS =    4
 NUMBER OF ELECTRONS                          =    4
 CHARGE OF MOLECULE                           =    0
 SPIN MULTIPLICITY                            =    1
 NUMBER OF OCCUPIED ORBITALS (ALPHA)          =    2
 NUMBER OF OCCUPIED ORBITALS (BETA )          =    2
 TOTAL NUMBER OF ATOMS                        =    4
 THE NUCLEAR REPULSION ENERGY IS        1.1465507067

 THIS MOLECULE IS RECOGNIZED AS BEING LINEAR,
 ORBITAL LZ DEGENERACY TOLERANCE ETOLLZ= 1.00E-06

     $CONTRL OPTIONS
     ---------------
 SCFTYP=UHF          RUNTYP=ENERGY       EXETYP=RUN     
 MPLEVL=       0     CITYP =NONE         CCTYP =NONE         VBTYP =NONE    
 DFTTYP=NONE         TDDFT =NONE    
 MULT  =       1     ICHARG=       0     NZVAR =       0     COORD =UNIQUE  
 PP    =NONE         RELWFN=NONE         LOCAL =NONE         NUMGRD=       F
 ISPHER=      -1     NOSYM =       1     MAXIT =      30     UNITS =ANGS    
 PLTORB=       F     MOLPLT=       F     AIMPAC=       F     FRIEND=        
 NPRINT=       7     IREST =       0     GEOM  =INPUT   
 NORMF =       0     NORMP =       0     ITOL  =      20     ICUT  =       9
 INTTYP=BEST         GRDTYP=BEST         QMTTOL= 1.0E-06

     $SYSTEM OPTIONS
     ---------------
  REPLICATED MEMORY=   100000000 WORDS (ON EVERY NODE).
 DISTRIBUTED MEMDDI=           0 MILLION WORDS IN AGGREGATE,
 MEMDDI DISTRIBUTED OVER   1 PROCESSORS IS           0 WORDS/PROCESSOR.
 TOTAL MEMORY REQUESTED ON EACH PROCESSOR=   100000000 WORDS.
 TIMLIM=       86400.00 MINUTES, OR      60.0 DAYS.
 PARALL= F  BALTYP=  DLB     KDIAG=    0  COREFL= F
 MXSEQ2=     300 MXSEQ3=     150  mem10=         0  mem22=         0

 Using Gaussians for PCM contribution to MEP, params: 0.10000E+01 0.10000E-07

          ----------------
          PROPERTIES INPUT
          ----------------

     MOMENTS            FIELD           POTENTIAL          DENSITY
 IEMOM =       1   IEFLD =       0   IEPOT =       0   IEDEN =       0
 WHERE =COMASS     WHERE =NUCLEI     WHERE =NUCLEI     WHERE =NUCLEI  
 OUTPUT=BOTH       OUTPUT=BOTH       OUTPUT=BOTH       OUTPUT=BOTH    
 IEMINT=       0   IEFINT=       0                     IEDINT=       0
                                                       MORB  =       0
          EXTRAPOLATION IN EFFECT
          DIIS or SOSCF will be reset if energy rises
 ORBITAL PRINTING OPTION: NPREO=     1     4     2     1

     -------------------------------
     INTEGRAL TRANSFORMATION OPTIONS
     -------------------------------
     NWORD  =            0
     CUTOFF = 1.0E-09     MPTRAN =       0
     DIRTRF =       F     AOINTS =DUP     

          ----------------------
          INTEGRAL INPUT OPTIONS
          ----------------------
 NOPK  =       1 NORDER=       0 SCHWRZ=       F

     ------------------------------------------
     THE POINT GROUP IS C1 , NAXIS= 1, ORDER= 1
     ------------------------------------------

     DIMENSIONS OF THE SYMMETRY SUBSPACES ARE
 A   =    4

 ..... DONE SETTING UP THE RUN .....
 STEP CPU TIME =     0.01 TOTAL CPU TIME =          0.0 (      0.0 MIN)
 TOTAL WALL CLOCK TIME=          0.0 SECONDS, CPU UTILIZATION IS    99.74%

          ********************
          1 ELECTRON INTEGRALS
          ********************
 ...... END OF ONE-ELECTRON INTEGRALS ......
 STEP CPU TIME =     0.00 TOTAL CPU TIME =          0.0 (      0.0 MIN)
 TOTAL WALL CLOCK TIME=          0.0 SECONDS, CPU UTILIZATION IS    99.73%

          -------------
          GUESS OPTIONS
          -------------
          GUESS =MOREAD            NORB  =       4          NORDER=       0
          MIX   =       F          PRTMO =       F          PUNMO =       F
          TOLZ  = 1.0E-08          TOLE  = 1.0E-05
          SYMDEN=       F          PURIFY=       F

 INITIAL GUESS ORBITALS GENERATED BY MOREAD   ROUTINE.

 SYMMETRIES FOR INITIAL GUESS ORBITALS FOLLOW.  ALPHA SET(S).
     2 ORBITALS ARE OCCUPIED (    0 CORE ORBITALS).
     1=A        2=A        3=A        4=A   

 SYMMETRIES FOR INITIAL GUESS ORBITALS FOLLOW.   BETA SET(S).
     2 ORBITALS ARE OCCUPIED (    0 CORE ORBITALS).
     1=A        2=A        3=A        4=A   
 ...... END OF INITIAL ORBITAL SELECTION ......
 STEP CPU TIME =     0.00 TOTAL CPU TIME =          0.0 (      0.0 MIN)
 TOTAL WALL CLOCK TIME=          0.0 SECONDS, CPU UTILIZATION IS    99.73%

                    ----------------------
                    AO INTEGRAL TECHNOLOGY
                    ----------------------
     S,P,L SHELL ROTATED AXIS INTEGRALS, REPROGRAMMED BY
        KAZUYA ISHIMURA (IMS) AND JOSE SIERRA (SYNSTAR).
     S,P,D,L SHELL ROTATED AXIS INTEGRALS PROGRAMMED BY
        KAZUYA ISHIMURA (INSTITUTE FOR MOLECULAR SCIENCE).
     S,P,D,F,G SHELL TO TOTAL QUARTET ANGULAR MOMENTUM SUM 5,
        ERIC PROGRAM BY GRAHAM FLETCHER (ELORET AND NASA ADVANCED
        SUPERCOMPUTING DIVISION, AMES RESEARCH CENTER).
     S,P,D,F,G,L SHELL GENERAL RYS QUADRATURE PROGRAMMED BY
        MICHEL DUPUIS (PACIFIC NORTHWEST NATIONAL LABORATORY).

          --------------------
          2 ELECTRON INTEGRALS
          --------------------

 THE -PK- OPTION IS OFF, THE INTEGRALS ARE NOT IN SUPERMATRIX FORM.
 STORING   15000 INTEGRALS/RECORD ON DISK, USING 12 BYTES/INTEGRAL.
 TWO ELECTRON INTEGRAL EVALUATION REQUIRES   89366 WORDS OF MEMORY.
 II,JST,KST,LST =  1  1  1  1 NREC =         1 INTLOC =    1
 II,JST,KST,LST =  2  1  1  1 NREC =         1 INTLOC =    2
 II,JST,KST,LST =  3  1  1  1 NREC =         1 INTLOC =    6
 II,JST,KST,LST =  4  1  1  1 NREC =         1 INTLOC =   21
 TOTAL NUMBER OF NONZERO TWO-ELECTRON INTEGRALS =                  54
          1 INTEGRAL RECORDS WERE STORED ON DISK FILE  8.
  ...... END OF TWO-ELECTRON INTEGRALS .....
 STEP CPU TIME =     0.01 TOTAL CPU TIME =          0.0 (      0.0 MIN)
 TOTAL WALL CLOCK TIME=          0.0 SECONDS, CPU UTILIZATION IS    99.74%

          ---------------------------
                  UHF SCF CALCULATION
          ---------------------------

     NUCLEAR ENERGY =         1.1465507067
     MAXIT = 30     NPUNCH=  2     MULT=  1
     EXTRAP=T  DAMP=F  SHIFT=F  RSTRCT=F  DIIS=F  SOSCF=F
     DENSITY MATRIX CONV=  1.00E-05
     MEMORY REQUIRED FOR UHF/ROHF ITERS=     30224 WORDS.

 ITER EX      TOTAL ENERGY        E CHANGE  DENSITY CHANGE    DIIS ERROR
   1  0       -1.8382544330    -1.8382544330   0.163243670   0.000000000
   2  1       -1.8518268282    -0.0135723952   0.053919667   0.000000000
   3  2       -1.8533379681    -0.0015111399   0.019225193   0.000000000
   4  3       -1.8535346463    -0.0001966782   0.007095586   0.000000000
   5  0       -1.8535618016    -0.0000271553   0.004256649   0.000000000
   6  1       -1.8535662657    -0.0000044641   0.000002955   0.000000000
   7  2       -1.8535662657    -0.0000000000   0.000001193   0.000000000
   8  3       -1.8535662657    -0.0000000000   0.000000464   0.000000000

          -----------------
          DENSITY CONVERGED
          -----------------
     TIME TO FORM FOCK OPERATORS=       0.0 SECONDS (       0.0 SEC/ITER)
     TIME TO SOLVE SCF EQUATIONS=       0.0 SECONDS (       0.0 SEC/ITER)

 FINAL UHF ENERGY IS       -1.8535662657 AFTER   8 ITERATIONS

          --------------------
          SPIN SZ   =    0.000
          S-SQUARED =    1.942
          --------------------

 LZ VALUE ANALYSIS FOR THE MOS
 ----------------------------------------
 MO     1 (    1) HAS LZ(WEIGHT)= 0.00(100.0%) 
 MO     2 (    2) HAS LZ(WEIGHT)= 0.00(100.0%) 
 MO     3 (    3) HAS LZ(WEIGHT)= 0.00(100.0%) 
 MO     4 (    4) HAS LZ(WEIGHT)= 0.00(100.0%) 

  ----- ALPHA SET ----- 

          ------------
          EIGENVECTORS
          ------------

                      1          2          3          4
                   -0.5174    -0.4091     0.2518     0.3874
                     A          A          A          A   
    1  H  1  S    0.680732  -0.741777   0.022139   0.021475
    2  H  2  S    0.000568   0.001497   0.686992  -0.736628
    3  H  3  S    0.651683   0.755554  -0.126463  -0.133507
    4  H  4  S    0.032270   0.054025   0.652167   0.774653

 LZ VALUE ANALYSIS FOR THE MOS
 ----------------------------------------
 MO     1 (    1) HAS LZ(WEIGHT)= 0.00(100.0%) 
 MO     2 (    2) HAS LZ(WEIGHT)= 0.00(100.0%) 
 MO     3 (    3) HAS LZ(WEIGHT)= 0.00(100.0%) 
 MO     4 (    4) HAS LZ(WEIGHT)= 0.00(100.0%) 

  ----- BETA SET ----- 

          ------------
          EIGENVECTORS
          ------------

                      1          2          3          4
                   -0.5174    -0.4091     0.2518     0.3874
                     A          A          A          A   
    1  H  1  S    0.000568   0.001497   0.686992  -0.736628
    2  H  2  S    0.680732  -0.741777   0.022139   0.021475
    3  H  3  S    0.032270   0.054025   0.652167   0.774653
    4  H  4  S    0.651683   0.755554  -0.126463  -0.133507

          -------------------------------------------
          UHF NATURAL ORBITALS AND OCCUPATION NUMBERS
          -------------------------------------------

                      1          2          3          4
                    1.2407     1.0037     0.9963     0.7593
                     A          A          A          A   
    1  H  1  S   -0.073625   0.706140   0.707957   0.096556
    2  H  2  S   -0.073625  -0.706140   0.707957  -0.096556
    3  H  3  S    0.672760   0.007916  -0.007393  -0.759372
    4  H  4  S    0.672760  -0.007916  -0.007393   0.759372
 ...... END OF UHF CALCULATION ......
 STEP CPU TIME =     0.00 TOTAL CPU TIME =          0.0 (      0.0 MIN)
 TOTAL WALL CLOCK TIME=          0.0 SECONDS, CPU UTILIZATION IS    99.75%

     ----------------------------------------------------------------
     PROPERTY VALUES FOR THE UHF   SELF-CONSISTENT FIELD WAVEFUNCTION
     ----------------------------------------------------------------

          -----------------
          ENERGY COMPONENTS
          -----------------

         WAVEFUNCTION NORMALIZATION =       1.0000000000

                ONE ELECTRON ENERGY =      -4.1472166622
                TWO ELECTRON ENERGY =       1.1470996898
           NUCLEAR REPULSION ENERGY =       1.1465507067
                                      ------------------
                       TOTAL ENERGY =      -1.8535662657

 ELECTRON-ELECTRON POTENTIAL ENERGY =       1.1470996898
  NUCLEUS-ELECTRON POTENTIAL ENERGY =      -7.2096233880
   NUCLEUS-NUCLEUS POTENTIAL ENERGY =       1.1465507067
                                      ------------------
             TOTAL POTENTIAL ENERGY =      -4.9159729915
               TOTAL KINETIC ENERGY =       3.0624067258
                 VIRIAL RATIO (V/T) =       1.6052645620

  ...... PI ENERGY ANALYSIS ......

 ENERGY ANALYSIS:
            FOCK ENERGY=     -1.8530173338
          BARE H ENERGY=     -4.1472166622
     ELECTRONIC ENERGY =     -3.0001169980
         KINETIC ENERGY=      3.0624067258
          N-N REPULSION=      1.1465507067
           TOTAL ENERGY=     -1.8535662913
        SIGMA PART(1+2)=     -3.0001169980
               (K,V1,2)=      3.0624067258     -7.2096233880      1.1470996642
           PI PART(1+2)=      0.0000000000
               (K,V1,2)=      0.0000000000      0.0000000000      0.0000000000
  SIGMA SKELETON, ERROR=     -1.8535662913     -0.0000000000
             MIXED PART= 0.00000E+00 0.00000E+00 0.00000E+00 0.00000E+00
 ...... END OF PI ENERGY ANALYSIS ......

          ---------------------------------------
          MULLIKEN AND LOWDIN POPULATION ANALYSES
          ---------------------------------------

     ATOMIC MULLIKEN POPULATION IN EACH MOLECULAR ORBITAL
        ALPHA ORBITALS

                      1          2

                  1.000000   1.000000

    1             0.516322   0.483347
    2             0.000003   0.000014
    3             0.480085   0.508915
    4             0.003590   0.007724

     ATOMIC MULLIKEN POPULATION IN EACH MOLECULAR ORBITAL
         BETA ORBITALS

                      1          2

                  1.000000   1.000000

    1             0.000003   0.000014
    2             0.516322   0.483347
    3             0.003590   0.007724
    4             0.480085   0.508915

     ATOMIC SPIN POPULATION (ALPHA MINUS BETA)
       ATOM         MULL.POP.                    LOW.POP.
    1 H             0.999652                     0.999623
    2 H            -0.999652                    -0.999623
    3 H             0.977687                     0.970437
    4 H            -0.977687                    -0.970437


          ********* ALL ELECTRONS ********

               ----- POPULATIONS IN EACH AO -----
                             MULLIKEN      LOWDIN
              1  H  1  S      0.99969     0.99966
              2  H  2  S      0.99969     0.99966
              3  H  3  S      1.00031     1.00034
              4  H  4  S      1.00031     1.00034

          ----- MULLIKEN ATOMIC OVERLAP POPULATIONS -----
          (OFF-DIAGONAL ELEMENTS NEED TO BE MULTIPLIED BY 2)

             1           2           3           4

    1    1.0136321
    2   -0.0000000   1.0136321
    3   -0.0139164  -0.0000294   0.9995126
    4   -0.0000294  -0.0139164   0.0147469   0.9995126

          TOTAL MULLIKEN AND LOWDIN ATOMIC POPULATIONS
       ATOM         MULL.POP.    CHARGE          LOW.POP.     CHARGE
    1 H             0.999686    0.000314         0.999663    0.000337
    2 H             0.999686    0.000314         0.999663    0.000337
    3 H             1.000314   -0.000314         1.000337   -0.000337
    4 H             1.000314   -0.000314         1.000337   -0.000337

          -------------------------------
          BOND ORDER AND VALENCE ANALYSIS     BOND ORDER THRESHOLD=0.050
          -------------------------------

                   BOND                       BOND                       BOND
  ATOM PAIR DIST  ORDER      ATOM PAIR DIST  ORDER      ATOM PAIR DIST  ORDER

                       TOTAL       BONDED        FREE
      ATOM            VALENCE     VALENCE     VALENCE
    1 H                 1.000       0.001       0.999
    2 H                 1.000       0.001       0.999
    3 H                 1.000       0.044       0.956
    4 H                 1.000       0.044       0.956

          -----------------------------------------
          ATOMIC SPIN DENSITY AT THE NUCLEUS (A.U.)
          -----------------------------------------
                            SPIN DENS    ALPHA DENS     BETA DENS
    1  H            1.0     0.3990239       0.39903       0.00000
    2  H            1.0    -0.3990239       0.00000       0.39903
    3  H            1.0     0.3902702       0.39247       0.00220
    4  H            1.0    -0.3902702       0.00220       0.39247

          ---------------------
          ELECTROSTATIC MOMENTS
          ---------------------

 POINT   1           X           Y           Z (BOHR)    CHARGE
                 0.000000    0.000000    0.000000        0.00 (A.U.)
         DX          DY          DZ         /D/  (DEBYE)
     0.000000    0.000000   -0.000000    0.000000
 ...... END OF PROPERTY EVALUATION ......
 STEP CPU TIME =     0.00 TOTAL CPU TIME =          0.0 (      0.0 MIN)
 TOTAL WALL CLOCK TIME=          0.0 SECONDS, CPU UTILIZATION IS    99.75%
               580000  WORDS OF DYNAMIC MEMORY USED
 EXECUTION OF GAMESS TERMINATED NORMALLY 15:28:12 31-MAR-2025    
 DDI: 263640 bytes (0.3 MB / 0 MWords) used by master data server.

 ----------------------------------------
 CPU timing information for all processes
 ========================================
 0: 0.14 + 0.17 = 0.31
 ----------------------------------------
 ddikick.x: exited gracefully.
unset echo
----- accounting info -----
Files used on the master node qcqip2 were:
-rw-rw-r-- 1 sugisaki sugisaki     960  3月 31 15:28 /home/sugisaki/scratch/4H_chain_R20_BS2-UHF_STO-3G_SCF.F05
-rw-rw-r-- 1 sugisaki sugisaki  180016  3月 31 15:28 /home/sugisaki/scratch/4H_chain_R20_BS2-UHF_STO-3G_SCF.F08
-rw-rw-r-- 1 sugisaki sugisaki 1995920  3月 31 15:28 /home/sugisaki/scratch/4H_chain_R20_BS2-UHF_STO-3G_SCF.F10
-rw-rw-r-- 1 sugisaki sugisaki    1745  3月 31 15:28 /home/sugisaki/scratch/4H_chain_R20_BS2-UHF_STO-3G_SCF.dat
